ITEM: TIMESTEP
0
ITEM: NUMBER OF ATOMS
640
ITEM: BOX BOUNDS xy xz yz pp pp pp
0.0000000000000000e+00 3.0783806435974007e+01 0.0000000000000000e+00
0.0000000000000000e+00 2.4627045148779207e+01 0.0000000000000000e+00
-7.6959516089935021e-01 7.6959516089935021e-01 0.0000000000000000e+00
ITEM: ATOMS id type x y z vx vy vz
1 1 0 0 0 0 0 0
2 1 0.769595 0.769595 0 0 0 0
3 1 1.53919 0 0 0 0 0
4 1 2.30879 0.769595 0 0 0 0
5 1 3.07838 0 0 0 0 0
6 1 3.84798 0.769595 0 0 0 0
7 1 4.61757 0 0 0 0 0
8 1 5.38717 0.769595 0 0 0 0
9 1 6.15676 0 0 0 0 0
10 1 6.92636 0.769595 0 0 0 0
11 1 7.69595 0 0 0 0 0
12 1 8.46555 0.769595 0 0 0 0
13 1 9.23514 0 0 0 0 0
14 1 10.0047 0.769595 0 0 0 0
15 1 10.7743 0 0 0 0 0
16 1 11.5439 0.769595 0 0 0 0
17 2 12.3135 0 0 0 0 0
18 2 13.0831 0.769595 0 0 0 0
19 2 13.8527 0 0 0 0 0
20 2 14.6223 0.769595 0 0 0 0
21 1 0 1.53919 0 0 0 0
22 1 0.769595 2.30879 0 0 0 0
23 1 1.53919 1.53919 0 0 0 0
24 1 2.30879 2.30879 0 0 0 0
25 1 3.07838 1.53919 0 0 0 0
26 1 3.84798 2.30879 0 0 0 0
27 1 4.61757 1.53919 0 0 0 0
28 1 5.38717 2.30879 0 0 0 0
29 1 6.15676 1.53919 0 0 0 0
30 1 6.92636 2.30879 0 0 0 0
31 1 7.69595 1.53919 0 0 0 0
32 1 8.46555 2.30879 0 0 0 0
33 1 9.23514 1.53919 0 0 0 0
34 1 10.0047 2.30879 0 0 0 0
35 1 10.7743 1.53919 0 0 0 0
36 1 11.5439 2.30879 0 0 0 0
37 2 12.3135 1.53919 0 0 0 0
38 2 13.0831 2.30879 0 0 0 0
39 2 13.8527 1.53919 0 0 0 0
40 2 14.6223 2.30879 0 0 0 0
41 1 0 3.07838 0 0 0 0
42 1 0.769595 3.84798 0 0 0 0
43 1 1.53919 3.07838 0 0 0 0
44 1 2.30879 3.84798 0 0 0 0
45 1 3.07838 3.07838 0 0 0 0
46 1 3.84798 3.84798 0 0 0 0
47 1 4.61757 3.07838 0 0 0 0
48 1 5.38717 3.84798 0 0 0 0
49 1 6.15676 3.07838 0 0 0 0
50 1 6.92636 3.84798 0 0 0 0
51 1 7.69595 3.07838 0 0 0 0
52 1 8.46555 3.84798 0 0 0 0
53 1 9.23514 3.07838 0 0 0 0
54 1 10.0047 3.84798 0 0 0 0
55 1 10.7743 3.07838 0 0 0 0
56 1 11.5439 3.84798 0 0 0 0
57 2 12.3135 3.07838 0 0 0 0
58 2 13.0831 3.84798 0 0 0 0
59 2 13.8527 3.07838 0 0 0 0
60 2 14.6223 3.84798 0 0 0 0
61 1 0 4.61757 0 0 0 0
62 1 0.769595 5.38717 0 0 0 0
63 1 1.53919 4.61757 0 0 0 0
64 1 2.30879 5.38717 0 0 0 0
65 1 3.07838 4.61757 0 0 0 0
66 1 3.84798 5.38717 0 0 0 0
67 1 4.61757 4.61757 0 0 0 0
68 1 5.38717 5.38717 0 0 0 0
69 1 6.15676 4.61757 0 0 0 0
70 1 6.92636 5.38717 0 0 0 0
71 1 7.69595 4.61757 0 0 0 0
72 1 8.46555 5.38717 0 0 0 0
73 1 9.23514 4.61757 0 0 0 0
74 1 10.0047 5.38717 0 0 0 0
75 1 10.7743 4.61757 0 0 0 0
76 1 11.5439 5.38717 0 0 0 0
77 2 12.3135 4.61757 0 0 0 0
78 2 13.0831 5.38717 0 0 0 0
79 2 13.8527 4.61757 0 0 0 0
80 2 14.6223 5.38717 0 0 0 0
81 1 0 6.15676 0 0 0 0
82 1 0.769595 6.92636 0 0 0 0
83 1 1.53919 6.15676 0 0 0 0
84 1 2.30879 6.92636 0 0 0 0
85 1 3.07838 6.15676 0 0 0 0
86 1 3.84798 6.92636 0 0 0 0
87 1 4.61757 6.15676 0 0 0 0
88 1 5.38717 6.92636 0 0 0 0
89 1 6.15676 6.15676 0 0 0 0
90 1 6.92636 6.92636 0 0 0 0
91 1 7.69595 6.15676 0 0 0 0
92 1 8.46555 6.92636 0 0 0 0
93 1 9.23514 6.15676 0 0 0 0
94 1 10.0047 6.92636 0 0 0 0
95 1 10.7743 6.15676 0 0 0 0
96 1 11.5439 6.92636 0 0 0 0
97 2 12.3135 6.15676 0 0 0 0
98 2 13.0831 6.92636 0 0 0 0
99 2 13.8527 6.15676 0 0 0 0
100 2 14.6223 6.92636 0 0 0 0
101 1 0 7.69595 0 0 0 0
102 1 0.769595 8.46555 0 0 0 0
103 1 1.53919 7.69595 0 0 0 0
104 1 2.30879 8.46555 0 0 0 0
105 1 3.07838 7.69595 0 0 0 0
106 1 3.84798 8.46555 0 0 0 0
107 1 4.61757 7.69595 0 0 0 0
108 1 5.38717 8.46555 0 0 0 0
109 1 6.15676 7.69595 0 0 0 0
110 1 6.92636 8.46555 0 0 0 0
111 1 7.69595 7.69595 0 0 0 0
112 1 8.46555 8.46555 0 0 0 0
113 1 9.23514 7.69595 0 0 0 0
114 1 10.0047 8.46555 0 0 0 0
115 1 10.7743 7.69595 0 0 0 0
116 1 11.5439 8.46555 0 0 0 0
117 2 12.3135 7.69595 0 0 0 0
118 2 13.0831 8.46555 0 0 0 0
119 2 13.8527 7.69595 0 0 0 0
120 2 14.6223 8.46555 0 0 0 0
121 1 0 9.23514 0 0 0 0
122 1 0.769595 10.0047 0 0 0 0
123 1 1.53919 9.23514 0 0 0 0
124 1 2.30879 10.0047 0 0 0 0
125 1 3.07838 9.23514 0 0 0 0
126 1 3.84798 10.0047 0 0 0 0
127 1 4.61757 9.23514 0 0 0 0
128 1 5.38717 10.0047 0 0 0 0
129 1 6.15676 9.23514 0 0 0 0
130 1 6.92636 10.0047 0 0 0 0
131 1 7.69595 9.23514 0 0 0 0
132 1 8.46555 10.0047 0 0 0 0
133 1 9.23514 9.23514 0 0 0 0
134 1 10.0047 10.0047 0 0 0 0
135 1 10.7743 9.23514 0 0 0 0
136 1 11.5439 10.0047 0 0 0 0
137 2 12.3135 9.23514 0 0 0 0
138 2 13.0831 10.0047 0 0 0 0
139 2 13.8527 9.23514 0 0 0 0
140 2 14.6223 10.0047 0 0 0 0
141 1 0 10.7743 0 0 0 0
142 1 0.769595 11.5439 0 0 0 0
143 1 1.53919 10.7743 0 0 0 0
144 1 2.30879 11.5439 0 0 0 0
145 1 3.07838 10.7743 0 0 0 0
146 1 3.84798 11.5439 0 0 0 0
147 1 4.61757 10.7743 0 0 0 0
148 1 5.38717 11.5439 0 0 0 0
149 1 6.15676 10.7743 0 0 0 0
150 1 6.92636 11.5439 0 0 0 0
151 1 7.69595 10.7743 0 0 0 0
152 1 8.46555 11.5439 0 0 0 0
153 1 9.23514 10.7743 0 0 0 0
154 1 10.0047 11.5439 0 0 0 0
155 1 10.7743 10.7743 0 0 0 0
156 1 11.5439 11.5439 0 0 0 0
157 2 12.3135 10.7743 0 0 0 0
158 2 13.0831 11.5439 0 0 0 0
159 2 13.8527 10.7743 0 0 0 0
160 2 14.6223 11.5439 0 0 0 0
161 1 0 12.3135 0 0 0 0
162 1 0.769595 13.0831 0 0 0 0
163 1 1.53919 12.3135 0 0 0 0
164 1 2.30879 13.0831 0 0 0 0
165 1 3.07838 12.3135 0 0 0 0
166 1 3.84798 13.0831 0 0 0 0
167 1 4.61757 12.3135 0 0 0 0
168 1 5.38717 13.0831 0 0 0 0
169 1 6.15676 12.3135 0 0 0 0
170 1 6.92636 13.0831 0 0 0 0
171 1 7.69595 12.3135 0 0 0 0
172 1 8.46555 13.0831 0 0 0 0
173 1 9.23514 12.3135 0 0 0 0
174 1 10.0047 13.0831 0 0 0 0
175 1 10.7743 12.3135 0 0 0 0
176 1 11.5439 13.0831 0 0 0 0
177 2 12.3135 12.3135 0 0 0 0
178 2 13.0831 13.0831 0 0 0 0
179 2 13.8527 12.3135 0 0 0 0
180 2 14.6223 13.0831 0 0 0 0
181 1 0 13.8527 0 0 0 0
182 1 0.769595 14.6223 0 0 0 0
183 1 1.53919 13.8527 0 0 0 0
184 1 2.30879 14.6223 0 0 0 0
185 1 3.07838 13.8527 0 0 0 0
186 1 3.84798 14.6223 0 0 0 0
187 1 4.61757 13.8527 0 0 0 0
188 1 5.38717 14.6223 0 0 0 0
189 1 6.15676 13.8527 0 0 0 0
190 1 6.92636 14.6223 0 0 0 0
191 1 7.69595 13.8527 0 0 0 0
192 1 8.46555 14.6223 0 0 0 0
193 1 9.23514 13.8527 0 0 0 0
194 1 10.0047 14.6223 0 0 0 0
195 1 10.7743 13.8527 0 0 0 0
196 1 11.5439 14.6223 0 0 0 0
197 2 12.3135 13.8527 0 0 0 0
198 2 13.0831 14.6223 0 0 0 0
199 2 13.8527 13.8527 0 0 0 0
200 2 14.6223 14.6223 0 0 0 0
201 1 0 15.3919 0 0 0 0
202 1 0.769595 16.1615 0 0 0 0
203 1 1.53919 15.3919 0 0 0 0
204 1 2.30879 16.1615 0 0 0 0
205 1 3.07838 15.3919 0 0 0 0
206 1 3.84798 16.1615 0 0 0 0
207 1 4.61757 15.3919 0 0 0 0
208 1 5.38717 16.1615 0 0 0 0
209 1 6.15676 15.3919 0 0 0 0
210 1 6.92636 16.1615 0 0 0 0
211 1 7.69595 15.3919 0 0 0 0
212 1 8.46555 16.1615 0 0 0 0
213 1 9.23514 15.3919 0 0 0 0
214 1 10.0047 16.1615 0 0 0 0
215 1 10.7743 15.3919 0 0 0 0
216 1 11.5439 16.1615 0 0 0 0
217 2 12.3135 15.3919 0 0 0 0
218 2 13.0831 16.1615 0 0 0 0
219 2 13.8527 15.3919 0 0 0 0
220 2 14.6223 16.1615 0 0 0 0
221 1 0 16.9311 0 0 0 0
222 1 0.769595 17.7007 0 0 0 0
223 1 1.53919 16.9311 0 0 0 0
224 1 2.30879 17.7007 0 0 0 0
225 1 3.07838 16.9311 0 0 0 0
226 1 3.84798 17.7007 0 0 0 0
227 1 4.61757 16.9311 0 0 0 0
228 1 5.38717 17.7007 0 0 0 0
229 1 6.15676 16.9311 0 0 0 0
230 1 6.92636 17.7007 0 0 0 0
231 1 7.69595 16.9311 0 0 0 0
232 1 8.46555 17.7007 0 0 0 0
233 1 9.23514 16.9311 0 0 0 0
234 1 10.0047 17.7007 0 0 0 0
235 1 10.7743 16.9311 0 0 0 0
236 1 11.5439 17.7007 0 0 0 0
237 2 12.3135 16.9311 0 0 0 0
238 2 13.0831 17.7007 0 0 0 0
239 2 13.8527 16.9311 0 0 0 0
240 2 14.6223 17.7007 0 0 0 0
241 1 0 18.4703 0 0 0 0
242 1 0.769595 19.2399 0 0 0 0
243 1 1.53919 18.4703 0 0 0 0
244 1 2.30879 19.2399 0 0 0 0
245 1 3.07838 18.4703 0 0 0 0
246 1 3.84798 19.2399 0 0 0 0
247 1 4.61757 18.4703 0 0 0 0
248 1 5.38717 19.2399 0 0 0 0
249 1 6.15676 18.4703 0 0 0 0
250 1 6.92636 19.2399 0 0 0 0
251 1 7.69595 18.4703 0 0 0 0
252 1 8.46555 19.2399 0 0 0 0
253 1 9.23514 18.4703 0 0 0 0
254 1 10.0047 19.2399 0 0 0 0
255 1 10.7743 18.4703 0 0 0 0
256 1 11.5439 19.2399 0 0 0 0
257 2 12.3135 18.4703 0 0 0 0
258 2 13.0831 19.2399 0 0 0 0
259 2 13.8527 18.4703 0 0 0 0
260 2 14.6223 19.2399 0 0 0 0
261 1 0 20.0095 0 0 0 0
262 1 0.769595 20.7791 0 0 0 0
263 1 1.53919 20.0095 0 0 0 0
264 1 2.30879 20.7791 0 0 0 0
265 1 3.07838 20.0095 0 0 0 0
266 1 3.84798 20.7791 0 0 0 0
267 1 4.61757 20.0095 0 0 0 0
268 1 5.38717 20.7791 0 0 0 0
269 1 6.15676 20.0095 0 0 0 0
270 1 6.92636 20.7791 0 0 0 0
271 1 7.69595 20.0095 0 0 0 0
272 1 8.46555 20.7791 0 0 0 0
273 1 9.23514 20.0095 0 0 0 0
274 1 10.0047 20.7791 0 0 0 0
275 1 10.7743 20.0095 0 0 0 0
276 1 11.5439 20.7791 0 0 0 0
277 2 12.3135 20.0095 0 0 0 0
278 2 13.0831 20.7791 0 0 0 0
279 2 13.8527 20.0095 0 0 0 0
280 2 14.6223 20.7791 0 0 0 0
281 1 0 21.5487 0 0 0 0
282 1 0.769595 22.3183 0 0 0 0
283 1 1.53919 21.5487 0 0 0 0
284 1 2.30879 22.3183 0 0 0 0
285 1 3.07838 21.5487 0 0 0 0
286 1 3.84798 22.3183 0 0 0 0
287 1 4.61757 21.5487 0 0 0 0
288 1 5.38717 22.3183 0 0 0 0
289 1 6.15676 21.5487 0 0 0 0
290 1 6.92636 22.3183 0 0 0 0
291 1 7.69595 21.5487 0 0 0 0
292 1 8.46555 22.3183 0 0 0 0
293 1 9.23514 21.5487 0 0 0 0
294 1 10.0047 22.3183 0 0 0 0
295 1 10.7743 21.5487 0 0 0 0
296 1 11.5439 22.3183 0 0 0 0
297 2 12.3135 21.5487 0 0 0 0
298 2 13.0831 22.3183 0 0 0 0
299 2 13.8527 21.5487 0 0 0 0
300 2 14.6223 22.3183 0 0 0 0
301 1 0 23.0879 0 0 0 0
302 1 0.769595 23.8574 0 0 0 0
303 1 1.53919 23.0879 0 0 0 0
304 1 2.30879 23.8574 0 0 0 0
305 1 3.07838 23.0879 0 0 0 0
306 1 3.84798 23.8574 0 0 0 0
307 1 4.61757 23.0879 0 0 0 0
308 1 5.38717 23.8574 0 0 0 0
309 1 6.15676 23.0879 0 0 0 0
310 1 6.92636 23.8574 0 0 0 0
311 1 7.69595 23.0879 0 0 0 0
312 1 8.46555 23.8574 0 0 0 0
313 1 9.23514 23.0879 0 0 0 0
314 1 10.0047 23.8574 0 0 0 0
315 1 10.7743 23.0879 0 0 0 0
316 1 11.5439 23.8574 0 0 0 0
317 2 12.3135 23.0879 0 0 0 0
318 2 13.0831 23.8574 0 0 0 0
319 2 13.8527 23.0879 0 0 0 0
320 2 14.6223 23.8574 0 0 0 0
321 2 15.3919 0 0 0 0 0
322 2 16.1615 0.769595 0 0 0 0
323 2 16.9311 0 0 0 0 0
324 2 17.7007 0.769595 0 0 0 0
325 2 18.4703 0 0 0 0 0
326 1 19.2399 0.769595 0 0 0 0
327 1 20.0095 0 0 0 0 0
328 1 20.7791 0.769595 0 0 0 0
329 1 21.5487 0 0 0 0 0
330 1 22.3183 0.769595 0 0 0 0
331 1 23.0879 0 0 0 0 0
332 1 23.8574 0.769595 0 0 0 0
333 1 24.627 0 0 0 0 0
334 1 25.3966 0.769595 0 0 0 0
335 1 26.1662 0 0 0 0 0
336 1 26.9358 0.769595 0 0 0 0
337 1 27.7054 0 0 0 0 0
338 1 28.475 0.769595 0 0 0 0
339 1 29.2446 0 0 0 0 0
340 1 30.0142 0.769595 0 0 0 0
341 2 15.3919 1.53919 0 0 0 0
342 2 16.1615 2.30879 0 0 0 0
343 2 16.9311 1.53919 0 0 0 0
344 2 17.7007 2.30879 0 0 0 0
345 2 18.4703 1.53919 0 0 0 0
346 1 19.2399 2.30879 0 0 0 0
347 1 20.0095 1.53919 0 0 0 0
348 1 20.7791 2.30879 0 0 0 0
349 1 21.5487 1.53919 0 0 0 0
350 1 22.3183 2.30879 0 0 0 0
351 1 23.0879 1.53919 0 0 0 0
352 1 23.8574 2.30879 0 0 0 0
353 1 24.627 1.53919 0 0 0 0
354 1 25.3966 2.30879 0 0 0 0
355 1 26.1662 1.53919 0 0 0 0
356 1 26.9358 2.30879 0 0 0 0
357 1 27.7054 1.53919 0 0 0 0
358 1 28.475 2.30879 0 0 0 0
359 1 29.2446 1.53919 0 0 0 0
360 1 30.0142 2.30879 0 0 0 0
361 2 15.3919 3.07838 0 0 0 0
362 2 16.1615 3.84798 0 0 0 0
363 2 16.9311 3.07838 0 0 0 0
364 2 17.7007 3.84798 0 0 0 0
365 2 18.4703 3.07838 0 0 0 0
366 1 19.2399 3.84798 0 0 0 0
367 1 20.0095 3.07838 0 0 0 0
368 1 20.7791 3.84798 0 0 0 0
369 1 21.5487 3.07838 0 0 0 0
370 1 22.3183 3.84798 0 0 0 0
371 1 23.0879 3.07838 0 0 0 0
372 1 23.8574 3.84798 0 0 0 0
373 1 24.627 3.07838 0 0 0 0
374 1 25.3966 3.84798 0 0 0 0
375 1 26.1662 3.07838 0 0 0 0
376 1 26.9358 3.84798 0 0 0 0
377 1 27.7054 3.07838 0 0 0 0
378 1 28.475 3.84798 0 0 0 0
379 1 29.2446 3.07838 0 0 0 0
380 1 30.0142 3.84798 0 0 0 0
381 2 15.3919 4.61757 0 0 0 0
382 2 16.1615 5.38717 0 0 0 0
383 2 16.9311 4.61757 0 0 0 0
384 2 17.7007 5.38717 0 0 0 0
385 2 18.4703 4.61757 0 0 0 0
386 1 19.2399 5.38717 0 0 0 0
387 1 20.0095 4.61757 0 0 0 0
388 1 20.7791 5.38717 0 0 0 0
389 1 21.5487 4.61757 0 0 0 0
390 1 22.3183 5.38717 0 0 0 0
391 1 23.0879 4.61757 0 0 0 0
392 1 23.8574 5.38717 0 0 0 0
393 1 24.627 4.61757 0 0 0 0
394 1 25.3966 5.38717 0 0 0 0
395 1 26.1662 4.61757 0 0 0 0
396 1 26.9358 5.38717 0 0 0 0
397 1 27.7054 4.61757 0 0 0 0
398 1 28.475 5.38717 0 0 0 0
399 1 29.2446 4.61757 0 0 0 0
400 1 30.0142 5.38717 0 0 0 0
401 2 15.3919 6.15676 0 0 0 0
402 2 16.1615 6.92636 0 0 0 0
403 2 16.9311 6.15676 0 0 0 0
404 2 17.7007 6.92636 0 0 0 0
405 2 18.4703 6.15676 0 0 0 0
406 1 19.2399 6.92636 0 0 0 0
407 1 20.0095 6.15676 0 0 0 0
408 1 20.7791 6.92636 0 0 0 0
409 1 21.5487 6.15676 0 0 0 0
410 1 22.3183 6.92636 0 0 0 0
411 1 23.0879 6.15676 0 0 0 0
412 1 23.8574 6.92636 0 0 0 0
413 1 24.627 6.15676 0 0 0 0
414 1 25.3966 6.92636 0 0 0 0
415 1 26.1662 6.15676 0 0 0 0
416 1 26.9358 6.92636 0 0 0 0
417 1 27.7054 6.15676 0 0 0 0
418 1 28.475 6.92636 0 0 0 0
419 1 29.2446 6.15676 0 0 0 0
420 1 30.0142 6.92636 0 0 0 0
421 2 15.3919 7.69595 0 0 0 0
422 2 16.1615 8.46555 0 0 0 0
423 2 16.9311 7.69595 0 0 0 0
424 2 17.7007 8.46555 0 0 0 0
425 2 18.4703 7.69595 0 0 0 0
426 1 19.2399 8.46555 0 0 0 0
427 1 20.0095 7.69595 0 0 0 0
428 1 20.7791 8.46555 0 0 0 0
429 1 21.5487 7.69595 0 0 0 0
430 1 22.3183 8.46555 0 0 0 0
431 1 23.0879 7.69595 0 0 0 0
432 1 23.8574 8.46555 0 0 0 0
433 1 24.627 7.69595 0 0 0 0
434 1 25.3966 8.46555 0 0 0 0
435 1 26.1662 7.69595 0 0 0 0
436 1 26.9358 8.46555 0 0 0 0
437 1 27.7054 7.69595 0 0 0 0
438 1 28.475 8.46555 0 0 0 0
439 1 29.2446 7.69595 0 0 0 0
440 1 30.0142 8.46555 0 0 0 0
441 2 15.3919 9.23514 0 0 0 0
442 2 16.1615 10.0047 0 0 0 0
443 2 16.9311 9.23514 0 0 0 0
444 2 17.7007 10.0047 0 0 0 0
445 2 18.4703 9.23514 0 0 0 0
446 1 19.2399 10.0047 0 0 0 0
447 1 20.0095 9.23514 0 0 0 0
448 1 20.7791 10.0047 0 0 0 0
449 1 21.5487 9.23514 0 0 0 0
450 1 22.3183 10.0047 0 0 0 0
451 1 23.0879 9.23514 0 0 0 0
452 1 23.8574 10.0047 0 0 0 0
453 1 24.627 9.23514 0 0 0 0
454 1 25.3966 10.0047 0 0 0 0
455 1 26.1662 9.23514 0 0 0 0
456 1 26.9358 10.0047 0 0 0 0
457 1 27.7054 9.23514 0 0 0 0
458 1 28.475 10.0047 0 0 0 0
459 1 29.2446 9.23514 0 0 0 0
460 1 30.0142 10.0047 0 0 0 0
461 2 15.3919 10.7743 0 0 0 0
462 2 16.1615 11.5439 0 0 0 0
463 2 16.9311 10.7743 0 0 0 0
464 2 17.7007 11.5439 0 0 0 0
465 2 18.4703 10.7743 0 0 0 0
466 1 19.2399 11.5439 0 0 0 0
467 1 20.0095 10.7743 0 0 0 0
468 1 20.7791 11.5439 0 0 0 0
469 1 21.5487 10.7743 0 0 0 0
470 1 22.3183 11.5439 0 0 0 0
471 1 23.0879 10.7743 0 0 0 0
472 1 23.8574 11.5439 0 0 0 0
473 1 24.627 10.7743 0 0 0 0
474 1 25.3966 11.5439 0 0 0 0
475 1 26.1662 10.7743 0 0 0 0
476 1 26.9358 11.5439 0 0 0 0
477 1 27.7054 10.7743 0 0 0 0
478 1 28.475 11.5439 0 0 0 0
479 1 29.2446 10.7743 0 0 0 0
480 1 30.0142 11.5439 0 0 0 0
481 2 15.3919 12.3135 0 0 0 0
482 2 16.1615 13.0831 0 0 0 0
483 2 16.9311 12.3135 0 0 0 0
484 2 17.7007 13.0831 0 0 0 0
485 2 18.4703 12.3135 0 0 0 0
486 1 19.2399 13.0831 0 0 0 0
487 1 20.0095 12.3135 0 0 0 0
488 1 20.7791 13.0831 0 0 0 0
489 1 21.5487 12.3135 0 0 0 0
490 1 22.3183 13.0831 0 0 0 0
491 1 23.0879 12.3135 0 0 0 0
492 1 23.8574 13.0831 0 0 0 0
493 1 24.627 12.3135 0 0 0 0
494 1 25.3966 13.0831 0 0 0 0
495 1 26.1662 12.3135 0 0 0 0
496 1 26.9358 13.0831 0 0 0 0
497 1 27.7054 12.3135 0 0 0 0
498 1 28.475 13.0831 0 0 0 0
499 1 29.2446 12.3135 0 0 0 0
500 1 30.0142 13.0831 0 0 0 0
501 2 15.3919 13.8527 0 0 0 0
502 2 16.1615 14.6223 0 0 0 0
503 2 16.9311 13.8527 0 0 0 0
504 2 17.7007 14.6223 0 0 0 0
505 2 18.4703 13.8527 0 0 0 0
506 1 19.2399 14.6223 0 0 0 0
507 1 20.0095 13.8527 0 0 0 0
508 1 20.7791 14.6223 0 0 0 0
509 1 21.5487 13.8527 0 0 0 0
510 1 22.3183 14.6223 0 0 0 0
511 1 23.0879 13.8527 0 0 0 0
512 1 23.8574 14.6223 0 0 0 0
513 1 24.627 13.8527 0 0 0 0
514 1 25.3966 14.6223 0 0 0 0
515 1 26.1662 13.8527 0 0 0 0
516 1 26.9358 14.6223 0 0 0 0
517 1 27.7054 13.8527 0 0 0 0
518 1 28.475 14.6223 0 0 0 0
519 1 29.2446 13.8527 0 0 0 0
520 1 30.0142 14.6223 0 0 0 0
521 2 15.3919 15.3919 0 0 0 0
522 2 16.1615 16.1615 0 0 0 0
523 2 16.9311 15.3919 0 0 0 0
524 2 17.7007 16.1615 0 0 0 0
525 2 18.4703 15.3919 0 0 0 0
526 1 19.2399 16.1615 0 0 0 0
527 1 20.0095 15.3919 0 0 0 0
528 1 20.7791 16.1615 0 0 0 0
529 1 21.5487 15.3919 0 0 0 0
530 1 22.3183 16.1615 0 0 0 0
531 1 23.0879 15.3919 0 0 0 0
532 1 23.8574 16.1615 0 0 0 0
533 1 24.627 15.3919 0 0 0 0
534 1 25.3966 16.1615 0 0 0 0
535 1 26.1662 15.3919 0 0 0 0
536 1 26.9358 16.1615 0 0 0 0
537 1 27.7054 15.3919 0 0 0 0
538 1 28.475 16.1615 0 0 0 0
539 1 29.2446 15.3919 0 0 0 0
540 1 30.0142 16.1615 0 0 0 0
541 2 15.3919 16.9311 0 0 0 0
542 2 16.1615 17.7007 0 0 0 0
543 2 16.9311 16.9311 0 0 0 0
544 2 17.7007 17.7007 0 0 0 0
545 2 18.4703 16.9311 0 0 0 0
546 1 19.2399 17.7007 0 0 0 0
547 1 20.0095 16.9311 0 0 0 0
548 1 20.7791 17.7007 0 0 0 0
549 1 21.5487 16.9311 0 0 0 0
550 1 22.3183 17.7007 0 0 0 0
551 1 23.0879 16.9311 0 0 0 0
552 1 23.8574 17.7007 0 0 0 0
553 1 24.627 16.9311 0 0 0 0
554 1 25.3966 17.7007 0 0 0 0
555 1 26.1662 16.9311 0 0 0 0
556 1 26.9358 17.7007 0 0 0 0
557 1 27.7054 16.9311 0 0 0 0
558 1 28.475 17.7007 0 0 0 0
559 1 29.2446 16.9311 0 0 0 0
560 1 30.0142 17.7007 0 0 0 0
561 2 15.3919 18.4703 0 0 0 0
562 2 16.1615 19.2399 0 0 0 0
563 2 16.9311 18.4703 0 0 0 0
564 2 17.7007 19.2399 0 0 0 0
565 2 18.4703 18.4703 0 0 0 0
566 1 19.2399 19.2399 0 0 0 0
567 1 20.0095 18.4703 0 0 0 0
568 1 20.7791 19.2399 0 0 0 0
569 1 21.5487 18.4703 0 0 0 0
570 1 22.3183 19.2399 0 0 0 0
571 1 23.0879 18.4703 0 0 0 0
572 1 23.8574 19.2399 0 0 0 0
573 1 24.627 18.4703 0 0 0 0
574 1 25.3966 19.2399 0 0 0 0
575 1 26.1662 18.4703 0 0 0 0
576 1 26.9358 19.2399 0 0 0 0
577 1 27.7054 18.4703 0 0 0 0
578 1 28.475 19.2399 0 0 0 0
579 1 29.2446 18.4703 0 0 0 0
580 1 30.0142 19.2399 0 0 0 0
581 2 15.3919 20.0095 0 0 0 0
582 2 16.1615 20.7791 0 0 0 0
583 2 16.9311 20.0095 0 0 0 0
584 2 17.7007 20.7791 0 0 0 0
585 2 18.4703 20.0095 0 0 0 0
586 1 19.2399 20.7791 0 0 0 0
587 1 20.0095 20.0095 0 0 0 0
588 1 20.7791 20.7791 0 0 0 0
589 1 21.5487 20.0095 0 0 0 0
590 1 22.3183 20.7791 0 0 0 0
591 1 23.0879 20.0095 0 0 0 0
592 1 23.8574 20.7791 0 0 0 0
593 1 24.627 20.0095 0 0 0 0
594 1 25.3966 20.7791 0 0 0 0
595 1 26.1662 20.0095 0 0 0 0
596 1 26.9358 20.7791 0 0 0 0
597 1 27.7054 20.0095 0 0 0 0
598 1 28.475 20.7791 0 0 0 0
599 1 29.2446 20.0095 0 0 0 0
600 1 30.0142 20.7791 0 0 0 0
601 2 15.3919 21.5487 0 0 0 0
602 2 16.1615 22.3183 0 0 0 0
603 2 16.9311 21.5487 0 0 0 0
604 2 17.7007 22.3183 0 0 0 0
605 2 18.4703 21.5487 0 0 0 0
606 1 19.2399 22.3183 0 0 0 0
607 1 20.0095 21.5487 0 0 0 0
608 1 20.7791 22.3183 0 0 0 0
609 1 21.5487 21.5487 0 0 0 0
610 1 22.3183 22.3183 0 0 0 0
611 1 23.0879 21.5487 0 0 0 0
612 1 23.8574 22.3183 0 0 0 0
613 1 24.627 21.5487 0 0 0 0
614 1 25.3966 22.3183 0 0 0 0
615 1 26.1662 21.5487 0 0 0 0
616 1 26.9358 22.3183 0 0 0 0
617 1 27.7054 21.5487 0 0 0 0
618 1 28.475 22.3183 0 0 0 0
619 1 29.2446 21.5487 0 0 0 0
620 1 30.0142 22.3183 0 0 0 0
621 2 15.3919 23.0879 0 0 0 0
622 2 16.1615 23.8574 0 0 0 0
623 2 16.9311 23.0879 0 0 0 0
624 2 17.7007 23.8574 0 0 0 0
625 2 18.4703 23.0879 0 0 0 0
626 1 19.2399 23.8574 0 0 0 0
627 1 20.0095 23.0879 0 0 0 0
628 1 20.7791 23.8574 0 0 0 0
629 1 21.5487 23.0879 0 0 0 0
630 1 22.3183 23.8574 0 0 0 0
631 1 23.0879 23.0879 0 0 0 0
632 1 23.8574 23.8574 0 0 0 0
633 1 24.627 23.0879 0 0 0 0
634 1 25.3966 23.8574 0 0 0 0
635 1 26.1662 23.0879 0 0 0 0
636 1 26.9358 23.8574 0 0 0 0
637 1 27.7054 23.0879 0 0 0 0
638 1 28.475 23.8574 0 0 0 0
639 1 29.2446 23.0879 0 0 0 0
640 1 30.0142 23.8574 0 0 0 0
ITEM: TIMESTEP
1000
ITEM: NUMBER OF ATOMS
640
ITEM: BOX BOUNDS xy xz yz pp pp pp
0.0000000000000000e+00 3.2015158693412971e+01 1.2313522574389602e+00
0.0000000000000000e+00 2.4627045148779207e+01 0.0000000000000000e+00
-7.6959516089935021e-01 7.6959516089935021e-01 0.0000000000000000e+00
ITEM: ATOMS id type x y z vx vy vz
320 2 8.83581 23.7695 0 -0.28495 0.000823498 0
566 1 14.0114 18.9523 0 0.0495544 -0.194822 0
364 2 14.6169 4.24107 0 -0.264456 0.141165 0
590 1 16.1209 20.634 0 0.146552 0.0734242 0
5 1 0.560665 0.0879571 0 0.172555 -0.000823951 0
6 1 1.37166 0.770439 0 -0.27901 0.11065 0
7 1 2.09986 0.0879571 0 0.172555 -0.000823592 0
8 1 2.91085 0.770439 0 -0.279011 0.110652 0
9 1 3.63905 0.0879571 0 0.172556 -0.000824689 0
10 1 4.45004 0.770439 0 -0.27901 0.110651 0
11 1 5.17824 0.0879571 0 0.172555 -0.000823833 0
12 1 5.98923 0.770439 0 -0.27901 0.110651 0
13 1 6.71743 0.0879571 0 0.172555 -0.000823567 0
14 1 7.52842 0.770439 0 -0.27901 0.11065 0
15 1 8.25662 0.087957 0 0.172555 -0.000823534 0
16 1 9.06761 0.770439 0 -0.279011 0.110651 0
17 2 9.79581 0.0879572 0 0.172556 -0.000824213 0
18 2 10.6068 0.770439 0 -0.27901 0.11065 0
19 2 11.335 0.0879571 0 0.172555 -0.000823909 0
20 2 12.146 0.770439 0 -0.27901 0.11065 0
319 2 8.02481 23.087 0 0.166614 -0.11065 0
504 2 13.5412 14.5425 0 -0.190735 0.045682 0
384 2 14.5764 5.60705 0 -0.0225092 0.0453552 0
24 1 0.108778 2.37571 0 -0.171758 0.00343792 0
25 1 0.615452 1.44972 0 -0.0161802 0.19953 0
26 1 1.64797 2.37571 0 -0.171758 0.00343783 0
27 1 2.15464 1.44972 0 -0.0161804 0.19953 0
28 1 3.18716 2.37571 0 -0.171758 0.00343794 0
29 1 3.69383 1.44972 0 -0.0161806 0.19953 0
30 1 4.72635 2.37571 0 -0.171758 0.00343796 0
31 1 5.23302 1.44972 0 -0.01618 0.19953 0
32 1 6.26554 2.37571 0 -0.171758 0.00343787 0
33 1 6.77221 1.44972 0 -0.0161806 0.19953 0
34 1 7.80473 2.37571 0 -0.171758 0.00343789 0
35 1 8.3114 1.44972 0 -0.0161804 0.19953 0
36 1 9.34392 2.37571 0 -0.171758 0.00343795 0
37 2 9.85059 1.44972 0 -0.0161805 0.19953 0
38 2 10.8831 2.37571 0 -0.171758 0.00343792 0
39 2 11.3898 1.44972 0 -0.0161803 0.19953 0
40 2 12.4223 2.37571 0 -0.171758 0.0034379 0
318 2 7.29661 23.7695 0 -0.284951 0.000823687 0
564 2 12.4722 18.9523 0 0.0495542 -0.194821 0
465 2 14.3439 10.851 0 -0.135724 0.24193 0
609 1 15.4445 21.4817 0 0.059362 -0.00343786 0
45 1 0.971566 3.22343 0 -0.258948 -0.0734241 0
46 1 0.76423 4.24107 0 -0.264457 0.141164 0
47 1 2.51076 3.22343 0 -0.258948 -0.0734248 0
48 1 2.30342 4.24107 0 -0.264457 0.141165 0
49 1 4.04995 3.22343 0 -0.258948 -0.0734246 0
50 1 3.84261 4.24107 0 -0.264456 0.141164 0
51 1 5.58914 3.22343 0 -0.258948 -0.0734241 0
52 1 5.3818 4.24107 0 -0.264456 0.141164 0
53 1 7.12833 3.22343 0 -0.258948 -0.0734245 0
54 1 6.92099 4.24107 0 -0.264457 0.141165 0
55 1 8.66752 3.22343 0 -0.258948 -0.0734249 0
56 1 8.46018 4.24107 0 -0.264456 0.141165 0
57 2 10.2067 3.22343 0 -0.258948 -0.0734245 0
58 2 9.99937 4.24107 0 -0.264456 0.141164 0
59 2 11.7459 3.22343 0 -0.258948 -0.0734245 0
60 2 11.5386 4.24107 0 -0.264456 0.141165 0
317 2 6.48562 23.087 0 0.166615 -0.110651 0
483 2 12.7532 12.3115 0 -0.108278 0.0618922 0
546 1 14.0768 17.588 0 0.134431 -0.327882 0
547 1 14.8399 16.9353 0 0.0414239 0.061949 0
528 1 15.5876 16.2426 0 -0.268902 0.0374665 0
66 1 0.723731 5.60705 0 -0.022509 0.0453552 0
67 1 1.5418 4.90514 0 -0.161949 0.194822 0
68 1 2.26292 5.60705 0 -0.0225089 0.0453556 0
69 1 3.08099 4.90514 0 -0.16195 0.194822 0
70 1 3.80211 5.60705 0 -0.022509 0.0453555 0
71 1 4.62018 4.90514 0 -0.16195 0.194822 0
72 1 5.3413 5.60705 0 -0.0225089 0.0453549 0
73 1 6.15937 4.90514 0 -0.16195 0.194822 0
74 1 6.88049 5.60705 0 -0.0225092 0.0453557 0
75 1 7.69856 4.90514 0 -0.16195 0.194822 0
76 1 8.41968 5.60705 0 -0.0225092 0.0453554 0
77 2 9.23775 4.90514 0 -0.161951 0.194822 0
78 2 9.95887 5.60705 0 -0.0225089 0.0453555 0
79 2 10.7769 4.90514 0 -0.16195 0.194822 0
80 2 11.4981 5.60705 0 -0.0225091 0.045355 0
316 1 5.75742 23.7695 0 -0.284951 0.000824593 0
503 2 12.7585 13.8241 0 0.180815 -0.138069 0
586 1 13.0425 20.634 0 0.146552 0.0734248 0
608 1 14.9378 22.4077 0 -0.0962156 -0.199529 0
548 1 15.616 17.588 0 0.13443 -0.327881 0
86 1 0.713327 6.92216 0 -0.153819 -0.0619487 0
87 1 1.47642 6.26945 0 -0.246827 0.327882 0
88 1 2.25252 6.92216 0 -0.15382 -0.0619489 0
89 1 3.01561 6.26945 0 -0.246827 0.327881 0
90 1 3.79171 6.92216 0 -0.15382 -0.0619492 0
91 1 4.5548 6.26945 0 -0.246827 0.327882 0
92 1 5.3309 6.92215 0 -0.15382 -0.0619493 0
93 1 6.09399 6.26945 0 -0.246826 0.327881 0
94 1 6.87009 6.92216 0 -0.15382 -0.0619487 0
95 1 7.63318 6.26945 0 -0.246827 0.327882 0
96 1 8.40928 6.92216 0 -0.15382 -0.0619492 0
97 2 9.17237 6.26945 0 -0.246827 0.327882 0
98 2 9.94847 6.92216 0 -0.15382 -0.0619489 0
99 2 10.7116 6.26945 0 -0.246827 0.327882 0
100 2 11.4877 6.92216 0 -0.15382 -0.0619493 0
315 1 4.94643 23.087 0 0.166615 -0.110651 0
563 2 11.7511 18.2504 0 -0.0898871 -0.0453554 0
545 2 13.3007 16.9353 0 0.0414239 0.061949 0
485 2 14.2924 12.3115 0 -0.108278 0.0618924 0
568 1 15.5506 18.9523 0 0.0495536 -0.194822 0
106 1 0.733718 8.26939 0 -0.051536 -0.0732143 0
107 1 1.50487 7.61486 0 0.156504 -0.037465 0
108 1 2.27291 8.26939 0 -0.0515362 -0.073215 0
109 1 3.04406 7.61486 0 0.156504 -0.037465 0
110 1 3.8121 8.26939 0 -0.0515362 -0.0732153 0
111 1 4.58325 7.61486 0 0.156505 -0.0374651 0
112 1 5.35129 8.26939 0 -0.0515361 -0.0732145 0
113 1 6.12244 7.61486 0 0.156504 -0.0374649 0
114 1 6.89048 8.26939 0 -0.0515361 -0.0732146 0
115 1 7.66163 7.61486 0 0.156504 -0.0374652 0
116 1 8.42967 8.26939 0 -0.0515361 -0.0732141 0
117 2 9.20082 7.61486 0 0.156504 -0.0374646 0
118 2 9.96886 8.26939 0 -0.051536 -0.0732143 0
119 2 10.74 7.61486 0 0.156504 -0.037465 0
120 2 11.5081 8.26939 0 -0.0515362 -0.0732151 0
314 1 4.21823 23.7695 0 -0.284951 0.000823897 0
623 2 11.1032 23.087 0 0.166614 -0.110651 0
585 2 13.2498 19.6164 0 0.15206 -0.141165 0
627 1 14.1816 23.087 0 0.166615 -0.110651 0
588 1 14.5817 20.634 0 0.146552 0.0734247 0
445 2 14.3256 9.31495 0 0.0783377 -0.0456834 0
127 1 0.472879 9.31495 0 0.0783358 -0.0456839 0
128 1 1.25551 10.0333 0 -0.293211 0.138068 0
129 1 2.01207 9.31495 0 0.078336 -0.0456838 0
130 1 2.7947 10.0333 0 -0.29321 0.138068 0
131 1 3.55126 9.31495 0 0.0783357 -0.0456831 0
132 1 4.33389 10.0333 0 -0.29321 0.138068 0
133 1 5.09045 9.31495 0 0.0783361 -0.0456841 0
134 1 5.87308 10.0333 0 -0.29321 0.138068 0
135 1 6.62964 9.31495 0 0.0783356 -0.0456833 0
136 1 7.41227 10.0333 0 -0.293211 0.138069 0
137 2 8.16883 9.31495 0 0.0783366 -0.0456853 0
138 2 8.95146 10.0333 0 -0.293209 0.138067 0
139 2 9.70802 9.31495 0 0.0783346 -0.0456828 0
140 2 10.4907 10.0333 0 -0.293211 0.138069 0
313 1 3.40724 23.087 0 0.166614 -0.110651 0
482 2 11.9836 13.0065 0 0.0233284 -0.241931 0
524 2 12.5092 16.2426 0 -0.268902 0.0374664 0
606 1 13.3986 22.4077 0 -0.0962153 -0.19953 0
506 1 15.0804 14.5425 0 -0.190735 0.0456817 0
527 1 14.8195 15.5881 0 -0.0608591 0.0732189 0
487 1 15.8316 12.3115 0 -0.108278 0.0618925 0
148 1 1.26085 11.546 0 -0.0041186 -0.061892 0
149 1 2.03042 10.851 0 -0.135722 0.241929 0
150 1 2.80004 11.546 0 -0.00411894 -0.0618917 0
151 1 3.56961 10.851 0 -0.135722 0.241929 0
152 1 4.33923 11.546 0 -0.00411887 -0.0618917 0
153 1 5.1088 10.851 0 -0.135722 0.241929 0
154 1 5.87842 11.546 0 -0.00411879 -0.0618918 0
155 1 6.64799 10.851 0 -0.135721 0.241928 0
156 1 7.41761 11.546 0 -0.00411903 -0.0618916 0
157 2 8.18718 10.851 0 -0.135722 0.241928 0
158 2 8.95681 11.546 0 -0.00411848 -0.0618921 0
159 2 9.72637 10.851 0 -0.135722 0.241929 0
160 2 10.496 11.546 0 -0.00411829 -0.0618922 0
312 1 2.67904 23.7695 0 -0.284951 0.000823893 0
522 2 10.97 16.2426 0 -0.268902 0.0374663 0
604 2 11.8594 22.4077 0 -0.0962155 -0.19953 0
342 2 13.9615 2.37571 0 -0.171758 0.0034379 0
607 1 13.9053 21.4817 0 0.059362 -0.00343792 0
404 2 14.566 6.92216 0 -0.15382 -0.061949 0
507 1 15.8369 13.8241 0 0.180814 -0.138068 0
168 1 1.20929 13.0065 0 0.0233278 -0.24193 0
169 1 1.97886 12.3115 0 -0.108277 0.0618914 0
170 1 2.74848 13.0065 0 0.0233284 -0.24193 0
171 1 3.51805 12.3115 0 -0.108277 0.0618914 0
172 1 4.28767 13.0065 0 0.0233279 -0.24193 0
173 1 5.05724 12.3115 0 -0.108277 0.0618914 0
174 1 5.82686 13.0065 0 0.0233284 -0.241931 0
175 1 6.59643 12.3115 0 -0.108276 0.0618912 0
176 1 7.36605 13.0065 0 0.0233277 -0.24193 0
177 2 8.13562 12.3115 0 -0.108277 0.0618917 0
178 2 8.90524 13.0065 0 0.023328 -0.24193 0
179 2 9.67481 12.3115 0 -0.108277 0.061892 0
180 2 10.4444 13.0065 0 0.0233283 -0.241931 0
311 1 1.86805 23.087 0 0.166615 -0.110652 0
542 2 10.9984 17.588 0 0.134431 -0.327882 0
624 2 11.9142 23.7695 0 -0.284951 0.000824393 0
625 2 12.6424 23.087 0 0.166614 -0.110651 0
525 2 13.2803 15.5881 0 -0.0608591 0.0732188 0
567 1 14.8295 18.2504 0 -0.0898864 -0.0453558 0
385 2 15.3945 4.90514 0 -0.16195 0.194822 0
188 1 1.22764 14.5425 0 -0.190734 0.0456844 0
189 1 1.9842 13.8241 0 0.180814 -0.138068 0
190 1 2.76683 14.5425 0 -0.190735 0.0456859 0
191 1 3.52339 13.8241 0 0.180815 -0.138069 0
192 1 4.30602 14.5425 0 -0.190733 0.0456836 0
193 1 5.06258 13.8241 0 0.180813 -0.138067 0
194 1 5.84521 14.5425 0 -0.190735 0.045685 0
195 1 6.60177 13.8241 0 0.180815 -0.138069 0
196 1 7.3844 14.5425 0 -0.190734 0.0456829 0
197 2 8.14096 13.8241 0 0.180814 -0.138068 0
198 2 8.92359 14.5425 0 -0.190735 0.0456835 0
199 2 9.68015 13.8241 0 0.180815 -0.138069 0
200 2 10.4628 14.5425 0 -0.190734 0.0456822 0
324 2 15.2244 0.770439 0 -0.27901 0.110651 0
602 2 10.3202 22.4077 0 -0.0962154 -0.19953 0
543 2 11.7615 16.9353 0 0.0414241 0.0619492 0
544 2 12.5376 17.588 0 0.134431 -0.327882 0
464 2 13.5744 11.546 0 -0.00411811 -0.0618924 0
383 2 13.8553 4.90514 0 -0.16195 0.194822 0
363 2 14.8243 3.22343 0 -0.258948 -0.0734247 0
425 2 15.3576 7.61486 0 0.156505 -0.0374656 0
209 1 0.966801 15.5881 0 -0.0608597 0.0732151 0
210 1 1.73484 16.2426 0 -0.268901 0.0374651 0
211 1 2.50599 15.5881 0 -0.0608598 0.0732145 0
212 1 3.27403 16.2426 0 -0.268901 0.0374654 0
213 1 4.04518 15.5881 0 -0.0608598 0.0732149 0
214 1 4.81322 16.2426 0 -0.268901 0.0374651 0
215 1 5.58437 15.5881 0 -0.0608596 0.0732157 0
216 1 6.35241 16.2426 0 -0.268902 0.0374659 0
217 2 7.12356 15.5881 0 -0.0608595 0.0732169 0
218 2 7.8916 16.2426 0 -0.268902 0.0374658 0
219 2 8.66275 15.5881 0 -0.0608594 0.0732169 0
220 2 9.43079 16.2426 0 -0.268902 0.0374661 0
343 2 14.4682 1.44972 0 -0.0161802 0.19953 0
622 2 10.375 23.7695 0 -0.284951 0.000823894 0
583 2 11.7106 19.6164 0 0.152061 -0.141165 0
402 2 13.0268 6.92216 0 -0.153819 -0.0619488 0
565 2 13.2903 18.2504 0 -0.0898876 -0.0453552 0
322 2 13.6852 0.770439 0 -0.27901 0.11065 0
486 1 15.062 13.0065 0 0.0233287 -0.241931 0
446 1 15.1082 10.0333 0 -0.29321 0.138068 0
229 1 0.987192 16.9353 0 0.0414244 0.0619494 0
230 1 1.76329 17.588 0 0.134431 -0.327882 0