LAMMPS (29 Oct 2020)
# 2d NEMD simulation

units		lj
atom_style	atomic
dimension	2

lattice		sq2 0.8442
Lattice spacing in x,y,z = 1.5391903 1.5391903 1.5391903
region		box prism 0 20 0 16 -0.5 0.5 0 0 0
create_box	2 box
Created triclinic box = (0.0000000 0.0000000 -0.76959516) to (30.783806 24.627045 0.76959516) with tilt (0.0000000 0.0000000 0.0000000)
  2 by 1 by 1 MPI processor grid
create_atoms	1 box
Created 640 atoms
  create_atoms CPU = 0.000 seconds
mass		* 1.0

velocity        all zero linear

region		slice block 8 12 INF INF INF INF
set		region slice type 2
Setting atom values ...
  144 settings made for type

pair_style	lj/cut 2.5
pair_coeff	* * 1.0 1.0 1.0

neighbor	0.3 bin
neigh_modify	delay 0 every 1

fix		1 all nvt/sllod temp 1.0 1.0 1.0 tchain 1
fix		2 all deform 1 xy erate 0.01 remap v

dump		1 all custom 1000 dump.nemd1 id type x y z vx vy vz

#dump		2 all image 1000 image.*.jpg type type adiam 1.2
#dump_modify	2 pad 5

#dump		3 all movie 1000 movie.mpg type type adiam 1.2
#dump_modify	3 pad 5

thermo		1000

run		50000
Neighbor list info ...
  update every 1 steps, delay 0 steps, check yes
  max neighbors/atom: 2000, page size: 100000
  master list distance cutoff = 1.3
  ghost atom cutoff = 1.3
  binsize = 0.65, bins = 48 38 3
  1 neighbor lists, perpetual/occasional/extra = 1 0 0
  (1) pair lj/cut, perpetual
      attributes: half, newton on
      pair build: half/bin/newton/tri
      stencil: half/bin/2d/newton/tri
      bin: standard
Per MPI rank memory allocation (min/avg/max) = 4.339 | 4.339 | 4.339 Mbytes
Step Temp E_pair E_mol TotEng Press Volume 
       0            0            0            0            0            0    758.11419 
    1000  0.023715845 0.0030247497            0  0.026703539   0.67603057    758.11419 
    2000   0.33742897  0.043853739            0   0.38075547    2.1896985    758.11419 
    3000    1.9806664   0.64081146            0    2.6183831    11.043337    758.11419 
    4000     3.304735    1.1390203            0    4.4385917    16.261294    758.11419 
    5000     1.634951   0.42463062            0     2.057027    8.3259123    758.11419 
    6000    0.6464634   0.13749154            0   0.78294484    4.3385067    758.11419 
    7000   0.33193476  0.063421933            0   0.39483804    2.6588639    758.11419 
    8000   0.25396795  0.035281866            0   0.28885299    1.8650586    758.11419 
    9000   0.25383943  0.026854195            0     0.280297    1.5664234    758.11419 
   10000   0.29081742   0.05018577            0   0.34054879     2.449894    758.11419 
   11000   0.41703513  0.082858583            0    0.4992421    3.0899071    758.11419 
   12000   0.56678727   0.15955634            0     0.725458    4.5976325    758.11419 
   13000   0.81030541    0.2259485            0    1.0349878     5.350073    758.11419 
   14000    1.0614607   0.36295651            0    1.4227587    7.6420611    758.11419 
   15000    1.4437136   0.38591476            0    1.8273725    7.6763341    758.11419 
   16000    1.6011652   0.51770747            0    2.1163709    9.2006084    758.11419 
   17000    1.6688461   0.56763573            0    2.2338743    9.8618747    758.11419 
   18000    1.6351617   0.56170061            0    2.1943073    9.6113437    758.11419 
   19000    1.5207316   0.43571694            0    1.9540724    8.3244398    758.11419 
   20000      1.28914   0.39484469            0    1.6819704    7.9817025    758.11419 
   21000    1.1620568   0.33792809            0    1.4981692    7.0595324    758.11419 
   22000     1.024178   0.28129867            0    1.3038764    6.6136826    758.11419 
   23000   0.88967154   0.25121897            0    1.1395004    5.7017425    758.11419 
   24000    0.8072355   0.21298015            0    1.0189543    5.4072884    758.11419 
   25000   0.76979397   0.16274575            0   0.93133692    4.5611653    758.11419 
   26000   0.74887628   0.13862964            0   0.88633579     4.413243    758.11419 
   27000   0.73516947   0.15573872            0   0.88975948    4.4405985    758.11419 
   28000   0.73259933   0.17549337            0   0.90694802    4.6891606    758.11419 
   29000   0.74034269   0.21526768            0   0.95445358    5.3296588    758.11419 
   30000   0.80919922   0.20049727            0    1.0084321     5.251989    758.11419 
   31000   0.87157183    0.2215626            0    1.0917726    5.6674344    758.11419 
   32000   0.93237013   0.21824542            0    1.1491587    5.5591272    758.11419 
   33000   0.96080343   0.29667243            0    1.2559746    6.3986427    758.11419 
   34000    1.0174527   0.31570898            0    1.3315719    6.6455695    758.11419 
   35000    1.0362118   0.32373581            0    1.3583285    7.0911078    758.11419 
   36000    1.1140168   0.27879227            0    1.3910684    6.6613115    758.11419 
   37000     1.103695   0.34101452            0     1.442985    7.4391754    758.11419 
   38000      1.12553   0.28649537            0    1.4102667    6.2472499    758.11419 
   39000    1.1214961   0.31879225            0     1.438536    6.9392373    758.11419 
   40000    1.0796992   0.32675992            0    1.4047721    6.9174956    758.11419 
   41000    1.0302277   0.36556846            0    1.3941864     7.316547    758.11419 
   42000    1.0766092    0.3003326            0    1.3752596    6.6294422    758.11419 
   43000    1.0219919   0.32235795            0     1.342753    6.9241971    758.11419 
   44000    1.0137871   0.28010884            0    1.2923119    6.1345249    758.11419 
   45000    1.0247339   0.27654707            0    1.2996798    6.0549495    758.11419 
   46000   0.99453758   0.25940672            0    1.2523903    5.9588662    758.11419 
   47000   0.96609706    0.2637452            0    1.2283327    6.2307876    758.11419 
   48000   0.93754887   0.25873711            0    1.1948211    5.9035755    758.11419 
   49000   0.95567588   0.23649994            0    1.1906826     5.648159    758.11419 
   50000   0.96676261    0.2207978            0    1.1860498    5.5823723    758.11419 
Loop time of 2.17514 on 2 procs for 50000 steps with 640 atoms

Performance: 9930400.866 tau/day, 22987.039 timesteps/s
100.0% CPU use with 2 MPI tasks x no OpenMP threads

MPI task timing breakdown:
Section |  min time  |  avg time  |  max time  |%varavg| %total
---------------------------------------------------------------
Pair    | 0.31495    | 0.32088    | 0.32681    |   1.0 | 14.75
Neigh   | 0.289      | 0.28953    | 0.29005    |   0.1 | 13.31
Comm    | 0.18424    | 0.19109    | 0.19795    |   1.6 |  8.79
Output  | 0.032954   | 0.032999   | 0.033044   |   0.0 |  1.52
Modify  | 1.1729     | 1.1901     | 1.2072     |   1.6 | 54.71
Other   |            | 0.1506     |            |       |  6.92

Nlocal:        320.000 ave         323 max         317 min
Histogram: 1 0 0 0 0 0 0 0 0 1
Nghost:        94.0000 ave          96 max          92 min
Histogram: 1 0 0 0 0 0 0 0 0 1
Neighs:        697.000 ave         707 max         687 min
Histogram: 1 0 0 0 0 0 0 0 0 1

Total # of neighbors = 1394
Ave neighs/atom = 2.1781250
Neighbor list builds = 5807
Dangerous builds = 0
Total wall time: 0:00:02
